                         Program Version 4.2.1 -  RELEASE  -
|  1> # avogadro generated ORCA input file
|  2> # Advanced Mode
|  3> #
|  4> ! B3LYP OPT FREQ def2-SVP def2/J NormalPrint Grid4  TightSCF PAL4
|  5> %scf
|  6> 	MaxIter 125
|  7> 	CNVDIIS 1
|  8> 	CNVSOSCF 1
|  9> end
| 10> %output
| 11> 	print[p_mos] true
| 12> 	print[p_basis] 5
| 13> end
| 14>
| 15> * xyz 0 1
| 16>    O       -3.38652        2.72713        0.01494
| 17>    H       -2.39719        2.69267       -0.01055
| 18>    H       -3.67588        1.96573       -0.54821
| 19> *
| 20>
| 21>
| 22>                          ****END OF INPUT****
 Total Charge           Charge          ....    0
 Multiplicity           Mult            ....    1
 Number of Electrons    NEL             ....   10
FINAL SINGLE POINT ENERGY       -76.320095641785
FINAL SINGLE POINT ENERGY       -76.321168596556
FINAL SINGLE POINT ENERGY       -76.321173192991
FINAL SINGLE POINT ENERGY       -76.321173598474
                    ***********************HURRAY********************

CARTESIAN COORDINATES (ANGSTROEM)
---------------------------------
  O     -3.384684    2.725045    0.013398
  H     -2.419239    2.681701   -0.018663
  H     -3.655668    1.978784   -0.538555

 Multiplicity           Mult            ....    1
 Number of Electrons    NEL             ....   10
 Basis Dimension        Dim             ....   24

ORBITAL ENERGIES
----------------

  NO   OCC          E(Eh)            E(eV)
   0   2.0000     -19.116083      -520.1751
   1   2.0000      -0.976158       -26.5626
   2   2.0000      -0.507979       -13.8228
   3   2.0000      -0.364407        -9.9160
   4   2.0000      -0.288143        -7.8408
   5   0.0000       0.047695         1.2979
   6   0.0000       0.126753         3.4491
   7   0.0000       0.558190        15.1891
   8   0.0000       0.623620        16.9696
   9   0.0000       0.920732        25.0544

------------------
MOLECULAR ORBITALS
------------------
                      0         1         2         3         4         5
                 -19.11608  -0.97616  -0.50798  -0.36441  -0.28814   0.04770
                   2.00000   2.00000   2.00000   2.00000   2.00000   0.00000
                  --------  --------  --------  --------  --------  --------
  0O   1s         0.988808  0.276386 -0.000000  0.111461 -0.000000 -0.102132
  0O   2s        -0.039505  0.551883 -0.000000  0.219887 -0.000000 -0.164836
  0O   3s         0.014002  0.258721  0.000001  0.370610 -0.000000 -0.963007
  0O   1pz        0.001498 -0.059156  0.173383  0.264859  0.513064  0.120018
  0O   1px       -0.001781  0.070343  0.412348 -0.314948  0.000002 -0.142716
  0O   1py        0.002025 -0.079981  0.234422  0.358099 -0.379475  0.162270
  0O   2pz       -0.000040  0.000021  0.070276  0.165528  0.394274  0.167150
  0O   2px        0.000048 -0.000025  0.167136 -0.196833  0.000001 -0.198758
  0O   2py       -0.000054  0.000028  0.095017  0.223800 -0.291616  0.225990
  0O   1dz2       0.000616 -0.002885 -0.006666  0.003115 -0.013266  0.003192
  0O   1dxz      -0.000274  0.000095 -0.004576  0.008742  0.009108  0.003250
  0O   1dyz      -0.000920  0.005030 -0.010408 -0.010785 -0.004691 -0.007596
  0O   1dx2y2    -0.000503  0.001917  0.017920  0.001209 -0.007659 -0.000877
  0O   1dxy      -0.000371  0.000129 -0.006188  0.011821 -0.006736  0.004394
  1H   1s         0.002377  0.204434  0.327338 -0.201839 -0.000000  0.111963
  1H   2s        -0.002328  0.014174  0.108371 -0.066850  0.000001  0.825588
  1H   1pz        0.000128 -0.003351  0.007878  0.015009  0.024437  0.001556
  1H   1px       -0.003239 -0.034446 -0.026542  0.012764 -0.000000  0.001104
  1H   1py        0.000173 -0.004530  0.010653  0.020291 -0.018073  0.002104
  2H   1s         0.002377  0.204434 -0.327338 -0.201839 -0.000001  0.111964
  2H   2s        -0.002328  0.014173 -0.108372 -0.066850 -0.000000  0.825594
  2H   1pz        0.001858  0.018195 -0.017507 -0.002154  0.024436 -0.000101
  2H   1px        0.000877  0.016794  0.003644 -0.028049 -0.000000 -0.002837
  2H   1py        0.002513  0.024600 -0.023670 -0.002912 -0.018074 -0.000134
                      6         7         8         9        10        11
                   0.12675   0.55819   0.62362   0.92073   0.92373   1.01014
                   0.00000   0.00000   0.00000   0.00000   0.00000   0.00000
                  --------  --------  --------  --------  --------  --------
  0O   1s         0.000000 -0.000000 -0.105851  0.143315 -0.000196  0.000004
  0O   2s         0.000001 -0.000005 -0.393181  0.614131 -0.000836  0.000020
  0O   3s         0.000000  0.000015  0.445776 -0.126101  0.000153 -0.000026
  0O   1pz        0.126914 -0.101088  0.187969  0.375440 -0.775726 -0.266861
  0O   1px        0.301833 -0.240419 -0.223515 -0.447703  0.000609 -0.634698
  0O   1py        0.171593 -0.136677  0.254138  0.509847  0.572652 -0.360827
  0O   2pz        0.208311 -0.128441 -0.007228 -0.556470  0.820212  0.595793
  0O   2px        0.495416 -0.305448  0.008596  0.663032 -0.000897  1.416977
  0O   2py        0.281645 -0.173659 -0.009771 -0.754738 -0.605024  0.805558
  0O   1dz2      -0.002514 -0.029339 -0.042847  0.006164  0.001783 -0.006261
  0O   1dxz      -0.001726 -0.020142  0.025618 -0.007852 -0.001222 -0.004296
  0O   1dyz      -0.003925 -0.045803  0.060048 -0.006112  0.000643 -0.009772
  0O   1dx2y2     0.006758  0.078866  0.037438 -0.006931  0.001046  0.016825
  0O   1dxy      -0.002334 -0.027232  0.034637 -0.010617  0.000925 -0.005811
  1H   1s        -0.104429  0.961391  0.836264 -0.396520  0.000546 -0.344223
  1H   2s        -1.299863 -0.844716 -0.638777  0.012520 -0.000023 -0.812786
  1H   1pz        0.002096 -0.037558  0.046542 -0.057630  0.018090  0.015767
  1H   1px       -0.003126  0.098618  0.197775  0.099097 -0.000136  0.253035
  1H   1py        0.002833 -0.050777  0.062929 -0.077961 -0.013205  0.021315
  2H   1s         0.104427 -0.961400  0.836267 -0.396523  0.000553  0.344223
  2H   2s         1.299862  0.844709 -0.638776  0.012494 -0.000004  0.812796
  2H   1pz       -0.002452  0.067804 -0.095365 -0.074757  0.018112  0.136606
  2H   1px        0.002279 -0.026676 -0.139718  0.058365 -0.000086  0.109342
  2H   1py       -0.003313  0.091677 -0.128940 -0.101118 -0.013172  0.184698
                     12        13        14        15        16        17
                   1.09851   1.35117   1.39871   1.54555   1.78994   2.20166
                   0.00000   0.00000   0.00000   0.00000   0.00000   0.00000
                  --------  --------  --------  --------  --------  --------
  0O   1s         0.245112  0.000012 -0.083956  0.000003  0.000001  0.000003
  0O   2s         1.542904  0.000094 -0.696349  0.000024  0.000007  0.000014
  0O   3s        -2.760373 -0.000218  1.673088 -0.000057 -0.000012  0.000018
  0O   1pz       -0.048484 -0.000008  0.047301 -0.000343 -0.002944  0.249544
  0O   1px        0.057670  0.000006 -0.056245  0.000003 -0.006995  0.593500
  0O   1py       -0.065570 -0.000009  0.063946  0.000247 -0.003980  0.337396
  0O   2pz        0.307600  0.000062 -0.579112  0.466530  0.278564  0.043528
  0O   2px       -0.365805 -0.000080  0.688651 -0.000002  0.662500  0.103529
  0O   2py        0.415909  0.000104 -0.782996 -0.345000  0.376652  0.058850
  0O   1dz2      -0.018028 -0.082944  0.037345  0.141209  0.008549  0.048875
  0O   1dxz       0.036241 -0.113888  0.088647 -0.096953  0.005879  0.033553
  0O   1dyz       0.009853 -0.029313 -0.119538  0.049933  0.013357  0.076292
  0O   1dx2y2     0.025190 -0.047887  0.008504  0.081528 -0.023002 -0.131376
  0O   1dxy       0.048995  0.084216  0.119888  0.071705  0.007937  0.045362
  1H   1s         0.524878  0.000087 -0.735348  0.000012 -0.337750 -0.197553
  1H   2s         0.506209  0.000023 -0.183465  0.000005 -0.092007 -0.336605
  1H   1pz        0.163449 -0.537085  0.361107 -0.589089 -0.484506 -0.017735
  1H   1px       -0.147698 -0.000016  0.115476 -0.000004  0.018665  0.861918
  1H   1py        0.220974  0.397153  0.488394  0.435663 -0.655096 -0.023974
  2H   1s         0.524866  0.000089 -0.735341  0.000036  0.337761  0.197535
  2H   2s         0.506202  0.000030 -0.183469  0.000008  0.092008  0.336595
  2H   1pz        0.137283  0.537062  0.055702 -0.589043  0.171982  0.489116
  2H   1px       -0.209901  0.000071 -0.611158 -0.000004 -0.761974  0.259177
  2H   1py        0.185613 -0.397237  0.075213  0.435679  0.232497  0.661301
                     18        19        20        21        22        23
                   2.24896   2.96385   2.99989   3.18792   3.48665   3.82373
                   0.00000   0.00000   0.00000   0.00000   0.00000   0.00000
                  --------  --------  --------  --------  --------  --------
  0O   1s         0.149178  0.000000  0.000001 -0.003170 -0.073526 -0.000000
  0O   2s         0.728761  0.000005  0.000003 -0.095736 -0.123951 -0.000002
  0O   3s         0.703842 -0.000020  0.000004  0.444342 -1.924444 -0.000013
  0O   1pz       -0.285075  0.013318  0.000003  0.002228  0.182934  0.158460
  0O   1px        0.338964 -0.000005  0.000003 -0.002645 -0.217534  0.376849
  0O   1py       -0.385428 -0.009848 -0.000002  0.003007  0.247333  0.214244
  0O   2pz       -0.107039 -0.241430 -0.000034 -0.244093  0.454142  0.378858
  0O   2px        0.127279 -0.000006  0.000004  0.290244 -0.540034  0.901011
  0O   2py       -0.144722  0.178582  0.000027 -0.330001  0.614013  0.512237
  0O   1dz2       0.140042  0.695770 -0.502653 -0.047676  0.546215 -0.385662
  0O   1dxz      -0.036823 -0.477506 -0.690371 -0.580396 -0.217701 -0.264781
  0O   1dyz      -0.224660  0.245994 -0.177727  0.435425 -0.831411 -0.602113
  0O   1dx2y2    -0.104971  0.401701 -0.290202 -0.184031 -0.436912  1.036740
  0O   1dxy      -0.049785  0.353219  0.510624 -0.784672 -0.294339 -0.357988
  1H   1s        -0.406333  0.000011 -0.000007 -0.256041  1.145721 -1.035452
  1H   2s        -0.206077  0.000001 -0.000002 -0.045815  0.237854 -0.272195
  1H   1pz       -0.007074  0.330599  0.305188  0.282753  0.021718 -0.042132
  1H   1px        0.876405 -0.000007  0.000007  0.088111 -0.788652  0.801634
  1H   1py       -0.009563 -0.244542 -0.225732  0.382268  0.029360 -0.056962
  2H   1s        -0.406344  0.000006  0.000000 -0.256039  1.145709  1.035469
  2H   2s        -0.206092  0.000004  0.000000 -0.045816  0.237852  0.272198
  2H   1pz       -0.493728  0.330693 -0.305101  0.044860  0.449380  0.463480
  2H   1px       -0.280931  0.000013  0.000002 -0.477653  0.228448  0.200415
  2H   1py       -0.667540 -0.244591  0.225658  0.060631  0.607583  0.626637

MULLIKEN ATOMIC CHARGES
-----------------------
   0 O :   -0.294297
   1 H :    0.147149
   2 H :    0.147149
Sum of atomic charges:   -0.0000000

LOEWDIN ATOMIC CHARGES
----------------------
   0 O :   -0.150309
   1 H :    0.075154
   2 H :    0.075154

  Mayer bond orders larger than 0.100000
B(  0-O ,  1-H ) :   1.0081 B(  0-O ,  2-H ) :   1.0081

FINAL SINGLE POINT ENERGY       -76.321173689430

DIPOLE MOMENT
-------------
                                X             Y             Z
Electronic contribution:     -0.12288       0.13972       0.10334
Nuclear contribution   :      0.57804      -0.65724      -0.48611
                        -----------------------------------------
Total Dipole Moment    :      0.45516      -0.51752      -0.38277
                        -----------------------------------------
Magnitude (a.u.)       :      0.78836
Magnitude (Debye)      :      2.00385

VIBRATIONAL FREQUENCIES
-----------------------

Scaling factor for frequencies =  1.000000000  (already applied!)

   0:         0.00 cm**-1
   1:         0.00 cm**-1
   2:         0.00 cm**-1
   3:         0.00 cm**-1
   4:         0.00 cm**-1
   5:         0.00 cm**-1
   6:      1638.27 cm**-1
   7:      3788.47 cm**-1
   8:      3883.58 cm**-1

IR SPECTRUM
-----------

 Mode    freq (cm**-1)   T**2         TX         TY         TZ
-------------------------------------------------------------------
   6:      1638.27   55.372702  (  4.297849  -4.884098  -3.612033)
   7:      3788.47    4.799140  (  1.265638  -1.437705  -1.063157)
   8:      3883.58   26.640440  (  4.213721   2.396541   1.772453)

--------------------------
THERMOCHEMISTRY AT 298.15K
--------------------------

Temperature         ... 298.15 K
Pressure            ... 1.00 atm
Total Mass          ... 18.02 AMU

Throughout the following assumptions are being made:
  (1) The electronic state is orbitally nondegenerate
  (2) There are no thermally accessible electronically excited states
  (3) Hindered rotations indicated by low frequency modes are not
      treated as such but are treated as vibrations and this may
      cause some error
  (4) All equations used are the standard statistical mechanics
      equations for an ideal gas
  (5) All vibrations are strictly harmonic

freq.    1638.27  E(vib)   ...       0.00
freq.    3788.47  E(vib)   ...       0.00
freq.    3883.58  E(vib)   ...       0.00

------------
INNER ENERGY
------------

The inner energy is: U= E(el) + E(ZPE) + E(vib) + E(rot) + E(trans)
    E(el)   - is the total energy from the electronic structure calculation
              = E(kin-el) + E(nuc-el) + E(el-el) + E(nuc-nuc)
    E(ZPE)  - the the zero temperature vibrational energy from the frequency calculation
    E(vib)  - the the finite temperature correction to E(ZPE) due to population
              of excited vibrational states
    E(rot)  - is the rotational thermal energy
    E(trans)- is the translational thermal energy

Summary of contributions to the inner energy U:
Electronic energy                ...    -76.32117369 Eh
Zero point energy                ...      0.02121046 Eh      13.31 kcal/mol
Thermal vibrational correction   ...      0.00000275 Eh       0.00 kcal/mol
Thermal rotational correction    ...      0.00141627 Eh       0.89 kcal/mol
Thermal translational correction ...      0.00141627 Eh       0.89 kcal/mol
-----------------------------------------------------------------------
Total thermal energy                    -76.29712794 Eh

Summary of corrections to the electronic energy:
(perhaps to be used in another calculation)
Total thermal correction                  0.00283530 Eh       1.78 kcal/mol
Non-thermal (ZPE) correction              0.02121046 Eh      13.31 kcal/mol
-----------------------------------------------------------------------
Total correction                          0.02404575 Eh      15.09 kcal/mol

--------
ENTHALPY
--------

The enthalpy is H = U + kB*T
                kB is Boltzmann's constant
Total free energy                 ...    -76.29712794 Eh
Thermal Enthalpy correction       ...      0.00094421 Eh       0.59 kcal/mol
-----------------------------------------------------------------------
Total Enthalpy                    ...    -76.29618373 Eh

Note: Rotational entropy computed according to Herzberg
Infrared and Raman Spectra, Chapter V,1, Van Nostrand Reinhold, 1945
Point Group:  Cs, Symmetry Number:   1
Rotational constants in cm-1:    26.031085    14.586010     9.348026

Vibrational entropy computed according to the QRRHO of S. Grimme
Chem.Eur.J. 2012 18 9955

-------
ENTROPY
-------

The entropy contributions are T*S = T*(S(el)+S(vib)+S(rot)+S(trans))
     S(el)   - electronic entropy
     S(vib)  - vibrational entropy
     S(rot)  - rotational entropy
     S(trans)- translational entropy
The entropies will be listed as mutliplied by the temperature to get
units of energy

Electronic entropy                ...      0.00000000 Eh      0.00 kcal/mol
Vibrational entropy               ...      0.00000310 Eh      0.00 kcal/mol
Rotational entropy                ...      0.00565170 Eh      3.55 kcal/mol
Translational entropy             ...      0.01644380 Eh     10.32 kcal/mol
-----------------------------------------------------------------------
Final entropy term                ...      0.02209860 Eh     13.87 kcal/mol

In case the symmetry of your molecule has not been determined correctly
or in case you have a reason to use a different symmetry number we print
out the resulting rotational entropy values for sn=1,12 :
 --------------------------------------------------------
|  sn= 1 | S(rot)=       0.00565170 Eh      3.55 kcal/mol|
|  sn= 2 | S(rot)=       0.00499724 Eh      3.14 kcal/mol|
|  sn= 3 | S(rot)=       0.00461441 Eh      2.90 kcal/mol|
|  sn= 4 | S(rot)=       0.00434278 Eh      2.73 kcal/mol|
|  sn= 5 | S(rot)=       0.00413210 Eh      2.59 kcal/mol|
|  sn= 6 | S(rot)=       0.00395995 Eh      2.48 kcal/mol|
|  sn= 7 | S(rot)=       0.00381441 Eh      2.39 kcal/mol|
|  sn= 8 | S(rot)=       0.00368833 Eh      2.31 kcal/mol|
|  sn= 9 | S(rot)=       0.00357712 Eh      2.24 kcal/mol|
|  sn=10 | S(rot)=       0.00347764 Eh      2.18 kcal/mol|
|  sn=11 | S(rot)=       0.00338765 Eh      2.13 kcal/mol|
|  sn=12 | S(rot)=       0.00330550 Eh      2.07 kcal/mol|
 --------------------------------------------------------

-------------------
GIBBS FREE ENERGY
-------------------

The Gibbs free energy is G = H - T*S

Total enthalpy                    ...    -76.29618373 Eh
Total entropy correction          ...     -0.02209860 Eh    -13.87 kcal/mol
-----------------------------------------------------------------------
Final Gibbs free energy         ...    -76.31828233 Eh

For completeness - the Gibbs free energy minus the electronic energy
G-E(el)                           ...      0.00289136 Eh      1.81 kcal/mol

                             ****ORCA TERMINATED NORMALLY****
TOTAL RUN TIME: 0 days 0 hours 0 minutes 26 seconds 300 msec
